# vtk DataFile Version 3.0
output vtk
ASCII
DATASET UNSTRUCTURED_GRID
POINTS        64 float
  1.000000E-01    5.000000E-02   -5.000000E-02
  6.666666E-02    5.000000E-02   -5.000000E-02
  3.333333E-02    5.000000E-02   -5.000000E-02
  0.000000E+00    5.000000E-02   -5.000000E-02
  1.000000E-01    1.666667E-02   -5.000000E-02
  6.666666E-02    1.666666E-02   -5.000000E-02
  3.333333E-02    1.666666E-02   -5.000000E-02
 -2.980232E-09    1.666667E-02   -5.000000E-02
  1.000000E-01   -1.666667E-02   -5.000000E-02
  6.666666E-02   -1.666667E-02   -5.000000E-02
  3.333333E-02   -1.666667E-02   -5.000000E-02
 -2.980232E-09   -1.666667E-02   -5.000000E-02
  1.000000E-01   -5.000000E-02   -5.000000E-02
  6.666666E-02   -5.000000E-02   -5.000000E-02
  3.333333E-02   -5.000000E-02   -5.000000E-02
  0.000000E+00   -5.000000E-02   -5.000000E-02
  1.000000E-01    5.000000E-02   -1.666667E-02
  6.666666E-02    5.000000E-02   -1.666666E-02
  3.333333E-02    5.000000E-02   -1.666666E-02
 -2.980232E-09    5.000000E-02   -1.666667E-02
  1.000000E-01    1.666666E-02   -1.666666E-02
  6.666666E-02    1.666666E-02   -1.666666E-02
  3.333333E-02    1.666666E-02   -1.666666E-02
 -5.960465E-09    1.666666E-02   -1.666666E-02
  1.000000E-01   -1.666667E-02   -1.666666E-02
  6.666666E-02   -1.666667E-02   -1.666666E-02
  3.333333E-02   -1.666667E-02   -1.666666E-02
 -5.960465E-09   -1.666667E-02   -1.666666E-02
  1.000000E-01   -5.000000E-02   -1.666667E-02
  6.666666E-02   -5.000000E-02   -1.666666E-02
  3.333333E-02   -5.000000E-02   -1.666666E-02
 -2.980232E-09   -5.000000E-02   -1.666667E-02
  1.000000E-01    5.000000E-02    1.666667E-02
  6.666666E-02    5.000000E-02    1.666667E-02
  3.333333E-02    5.000000E-02    1.666667E-02
 -2.980232E-09    5.000000E-02    1.666667E-02
  1.000000E-01    1.666666E-02    1.666667E-02
  6.666666E-02    1.666666E-02    1.666667E-02
  3.333333E-02    1.666666E-02    1.666667E-02
 -5.960465E-09    1.666666E-02    1.666667E-02
  1.000000E-01   -1.666667E-02    1.666667E-02
  6.666666E-02   -1.666667E-02    1.666667E-02
  3.333333E-02   -1.666667E-02    1.666667E-02
 -5.960465E-09   -1.666667E-02    1.666667E-02
  1.000000E-01   -5.000000E-02    1.666667E-02
  6.666666E-02   -5.000000E-02    1.666667E-02
  3.333333E-02   -5.000000E-02    1.666667E-02
 -2.980232E-09   -5.000000E-02    1.666667E-02
  1.000000E-01    5.000000E-02    5.000000E-02
  6.666666E-02    5.000000E-02    5.000000E-02
  3.333333E-02    5.000000E-02    5.000000E-02
  0.000000E+00    5.000000E-02    5.000000E-02
  1.000000E-01    1.666667E-02    5.000000E-02
  6.666666E-02    1.666666E-02    5.000000E-02
  3.333333E-02    1.666666E-02    5.000000E-02
 -2.980232E-09    1.666667E-02    5.000000E-02
  1.000000E-01   -1.666667E-02    5.000000E-02
  6.666666E-02   -1.666667E-02    5.000000E-02
  3.333333E-02   -1.666667E-02    5.000000E-02
 -2.980232E-09   -1.666667E-02    5.000000E-02
  1.000000E-01   -5.000000E-02    5.000000E-02
  6.666666E-02   -5.000000E-02    5.000000E-02
  3.333333E-02   -5.000000E-02    5.000000E-02
  0.000000E+00   -5.000000E-02    5.000000E-02
CELLS         27     243
  8  0  1  5  4  16  17  21  20
  8  1  2  6  5  17  18  22  21
  8  2  3  7  6  18  19  23  22
  8  4  5  9  8  20  21  25  24
  8  5  6  10  9  21  22  26  25
  8  6  7  11  10  22  23  27  26
  8  8  9  13  12  24  25  29  28
  8  9  10  14  13  25  26  30  29
  8  10  11  15  14  26  27  31  30
  8  16  17  21  20  32  33  37  36
  8  17  18  22  21  33  34  38  37
  8  18  19  23  22  34  35  39  38
  8  20  21  25  24  36  37  41  40
  8  21  22  26  25  37  38  42  41
  8  22  23  27  26  38  39  43  42
  8  24  25  29  28  40  41  45  44
  8  25  26  30  29  41  42  46  45
  8  26  27  31  30  42  43  47  46
  8  32  33  37  36  48  49  53  52
  8  33  34  38  37  49  50  54  53
  8  34  35  39  38  50  51  55  54
  8  36  37  41  40  52  53  57  56
  8  37  38  42  41  53  54  58  57
  8  38  39  43  42  54  55  59  58
  8  40  41  45  44  56  57  61  60
  8  41  42  46  45  57  58  62  61
  8  42  43  47  46  58  59  63  62
CELL_TYPES       27
  12
  12
  12
  12
  12
  12
  12
  12
  12
  12
  12
  12
  12
  12
  12
  12
  12
  12
  12
  12
  12
  12
  12
  12
  12
  12
  12
POINT_DATA   64
SCALARS  node_surflag  float
LOOKUP_TABLE default
  0
  0
  0
  1
  0
  0
  0
  1
  0
  0
  0
  1
  0
  0
  0
  1
  0
  0
  0
  1
  0
  0
  0
  1
  0
  0
  0
  1
  0
  0
  0
  1
  0
  0
  0
  1
  0
  0
  0
  1
  0
  0
  0
  1
  0
  0
  0
  1
  0
  0
  0
  1
  0
  0
  0
  1
  0
  0
  0
  1
  0
  0
  0
  1
VECTORS  reci_integ_value  float
  0  0  0
  0  0  0
  0  0  0
  0.000277778  -2.48353e-11  2.48353e-11
  0  0  0
  0  0  0
  0  0  0
  0.000555556  -2.48353e-11  4.96705e-11
  0  0  0
  0  0  0
  0  0  0
  0.000555556  2.48353e-11  4.96705e-11
  0  0  0
  0  0  0
  0  0  0
  0.000277778  2.48353e-11  2.48353e-11
  0  0  0
  0  0  0
  0  0  0
  0.000555556  -4.96705e-11  2.48353e-11
  0  0  0
  0  0  0
  0  0  0
  0.00111111  -4.96705e-11  4.96705e-11
  0  0  0
  0  0  0
  0  0  0
  0.00111111  4.96705e-11  4.96705e-11
  0  0  0
  0  0  0
  0  0  0
  0.000555556  4.96705e-11  2.48353e-11
  0  0  0
  0  0  0
  0  0  0
  0.000555556  -4.96705e-11  -2.48353e-11
  0  0  0
  0  0  0
  0  0  0
  0.00111111  -4.96705e-11  -4.96705e-11
  0  0  0
  0  0  0
  0  0  0
  0.00111111  4.96705e-11  -4.96705e-11
  0  0  0
  0  0  0
  0  0  0
  0.000555556  4.96705e-11  -2.48353e-11
  0  0  0
  0  0  0
  0  0  0
  0.000277778  -2.48353e-11  -2.48353e-11
  0  0  0
  0  0  0
  0  0  0
  0.000555556  -2.48353e-11  -4.96705e-11
  0  0  0
  0  0  0
  0  0  0
  0.000555556  2.48353e-11  -4.96705e-11
  0  0  0
  0  0  0
  0  0  0
  0.000277778  2.48353e-11  -2.48353e-11
