# vtk DataFile Version 3.0
output vtk
ASCII
DATASET UNSTRUCTURED_GRID
POINTS        1323 float
  -2.000000E-03  -5.000000E-02  -5.000000E-02
   0.000000E+00  -5.000000E-02  -5.000000E-02
   2.000000E-03  -5.000000E-02  -5.000000E-02
  -2.000000E-03  -4.500000E-02  -5.000000E-02
   0.000000E+00  -4.500000E-02  -5.000000E-02
   2.000000E-03  -4.500000E-02  -5.000000E-02
  -2.000000E-03  -4.000000E-02  -5.000000E-02
   0.000000E+00  -4.000000E-02  -5.000000E-02
   2.000000E-03  -4.000000E-02  -5.000000E-02
  -2.000000E-03  -3.500000E-02  -5.000000E-02
   0.000000E+00  -3.500000E-02  -5.000000E-02
   2.000000E-03  -3.500000E-02  -5.000000E-02
  -2.000000E-03  -3.000000E-02  -5.000000E-02
   0.000000E+00  -3.000000E-02  -5.000000E-02
   2.000000E-03  -3.000000E-02  -5.000000E-02
  -2.000000E-03  -2.500000E-02  -5.000000E-02
   0.000000E+00  -2.500000E-02  -5.000000E-02
   2.000000E-03  -2.500000E-02  -5.000000E-02
  -2.000000E-03  -2.000000E-02  -5.000000E-02
   0.000000E+00  -2.000000E-02  -5.000000E-02
   2.000000E-03  -2.000000E-02  -5.000000E-02
  -2.000000E-03  -1.500000E-02  -5.000000E-02
   0.000000E+00  -1.500000E-02  -5.000000E-02
   2.000000E-03  -1.500000E-02  -5.000000E-02
  -2.000000E-03  -1.000000E-02  -5.000000E-02
   0.000000E+00  -1.000000E-02  -5.000000E-02
   2.000000E-03  -1.000000E-02  -5.000000E-02
  -2.000000E-03  -5.000001E-03  -5.000000E-02
   0.000000E+00  -5.000001E-03  -5.000000E-02
   2.000000E-03  -5.000001E-03  -5.000000E-02
  -2.000000E-03  0.000000E+00  -5.000000E-02
   0.000000E+00  0.000000E+00  -5.000000E-02
   2.000000E-03  0.000000E+00  -5.000000E-02
  -2.000000E-03  5.000001E-03  -5.000000E-02
   0.000000E+00  5.000001E-03  -5.000000E-02
   2.000000E-03  5.000001E-03  -5.000000E-02
  -2.000000E-03  1.000000E-02  -5.000000E-02
   0.000000E+00  1.000000E-02  -5.000000E-02
   2.000000E-03  1.000000E-02  -5.000000E-02
  -2.000000E-03  1.500000E-02  -5.000000E-02
   0.000000E+00  1.500000E-02  -5.000000E-02
   2.000000E-03  1.500000E-02  -5.000000E-02
  -2.000000E-03  2.000000E-02  -5.000000E-02
   0.000000E+00  2.000000E-02  -5.000000E-02
   2.000000E-03  2.000000E-02  -5.000000E-02
  -2.000000E-03  2.500000E-02  -5.000000E-02
   0.000000E+00  2.500000E-02  -5.000000E-02
   2.000000E-03  2.500000E-02  -5.000000E-02
  -2.000000E-03  3.000000E-02  -5.000000E-02
   0.000000E+00  3.000000E-02  -5.000000E-02
   2.000000E-03  3.000000E-02  -5.000000E-02
  -2.000000E-03  3.500000E-02  -5.000000E-02
   0.000000E+00  3.500000E-02  -5.000000E-02
   2.000000E-03  3.500000E-02  -5.000000E-02
  -2.000000E-03  4.000000E-02  -5.000000E-02
   0.000000E+00  4.000000E-02  -5.000000E-02
   2.000000E-03  4.000000E-02  -5.000000E-02
  -2.000000E-03  4.500000E-02  -5.000000E-02
   0.000000E+00  4.500000E-02  -5.000000E-02
   2.000000E-03  4.500000E-02  -5.000000E-02
  -2.000000E-03  5.000000E-02  -5.000000E-02
   0.000000E+00  5.000000E-02  -5.000000E-02
   2.000000E-03  5.000000E-02  -5.000000E-02
  -2.000000E-03  -5.000000E-02  -4.500000E-02
   0.000000E+00  -5.000000E-02  -4.500000E-02
   2.000000E-03  -5.000000E-02  -4.500000E-02
  -2.000000E-03  -4.500000E-02  -4.500000E-02
   0.000000E+00  -4.500000E-02  -4.500000E-02
   2.000000E-03  -4.500000E-02  -4.500000E-02
  -2.000000E-03  -4.000000E-02  -4.500000E-02
   0.000000E+00  -4.000000E-02  -4.500000E-02
   2.000000E-03  -4.000000E-02  -4.500000E-02
  -2.000000E-03  -3.500000E-02  -4.500000E-02
   0.000000E+00  -3.500000E-02  -4.500000E-02
   2.000000E-03  -3.500000E-02  -4.500000E-02
  -2.000000E-03  -3.000000E-02  -4.500000E-02
   0.000000E+00  -3.000000E-02  -4.500000E-02
   2.000000E-03  -3.000000E-02  -4.500000E-02
  -2.000000E-03  -2.500000E-02  -4.500000E-02
   0.000000E+00  -2.500000E-02  -4.500000E-02
   2.000000E-03  -2.500000E-02  -4.500000E-02
  -2.000000E-03  -2.000000E-02  -4.500000E-02
   0.000000E+00  -2.000000E-02  -4.500000E-02
   2.000000E-03  -2.000000E-02  -4.500000E-02
  -2.000000E-03  -1.500000E-02  -4.500000E-02
   0.000000E+00  -1.500000E-02  -4.500000E-02
   2.000000E-03  -1.500000E-02  -4.500000E-02
  -2.000000E-03  -1.000000E-02  -4.500000E-02
   0.000000E+00  -1.000000E-02  -4.500000E-02
   2.000000E-03  -1.000000E-02  -4.500000E-02
  -2.000000E-03  -5.000001E-03  -4.500000E-02
   0.000000E+00  -5.000001E-03  -4.500000E-02
   2.000000E-03  -5.000001E-03  -4.500000E-02
  -2.000000E-03  0.000000E+00  -4.500000E-02
   0.000000E+00  0.000000E+00  -4.500000E-02
   2.000000E-03  0.000000E+00  -4.500000E-02
  -2.000000E-03  5.000001E-03  -4.500000E-02
   0.000000E+00  5.000001E-03  -4.500000E-02
   2.000000E-03  5.000001E-03  -4.500000E-02
  -2.000000E-03  1.000000E-02  -4.500000E-02
   0.000000E+00  1.000000E-02  -4.500000E-02
   2.000000E-03  1.000000E-02  -4.500000E-02
  -2.000000E-03  1.500000E-02  -4.500000E-02
   0.000000E+00  1.500000E-02  -4.500000E-02
   2.000000E-03  1.500000E-02  -4.500000E-02
  -2.000000E-03  2.000000E-02  -4.500000E-02
   0.000000E+00  2.000000E-02  -4.500000E-02
   2.000000E-03  2.000000E-02  -4.500000E-02
  -2.000000E-03  2.500000E-02  -4.500000E-02
   0.000000E+00  2.500000E-02  -4.500000E-02
   2.000000E-03  2.500000E-02  -4.500000E-02
  -2.000000E-03  3.000000E-02  -4.500000E-02
   0.000000E+00  3.000000E-02  -4.500000E-02
   2.000000E-03  3.000000E-02  -4.500000E-02
  -2.000000E-03  3.500000E-02  -4.500000E-02
   0.000000E+00  3.500000E-02  -4.500000E-02
   2.000000E-03  3.500000E-02  -4.500000E-02
  -2.000000E-03  4.000000E-02  -4.500000E-02
   0.000000E+00  4.000000E-02  -4.500000E-02
   2.000000E-03  4.000000E-02  -4.500000E-02
  -2.000000E-03  4.500000E-02  -4.500000E-02
   0.000000E+00  4.500000E-02  -4.500000E-02
   2.000000E-03  4.500000E-02  -4.500000E-02
  -2.000000E-03  5.000000E-02  -4.500000E-02
   0.000000E+00  5.000000E-02  -4.500000E-02
   2.000000E-03  5.000000E-02  -4.500000E-02
  -2.000000E-03  -5.000000E-02  -4.000000E-02
   0.000000E+00  -5.000000E-02  -4.000000E-02
   2.000000E-03  -5.000000E-02  -4.000000E-02
  -2.000000E-03  -4.500000E-02  -4.000000E-02
   0.000000E+00  -4.500000E-02  -4.000000E-02
   2.000000E-03  -4.500000E-02  -4.000000E-02
  -2.000000E-03  -4.000000E-02  -4.000000E-02
   0.000000E+00  -4.000000E-02  -4.000000E-02
   2.000000E-03  -4.000000E-02  -4.000000E-02
  -2.000000E-03  -3.500000E-02  -4.000000E-02
   0.000000E+00  -3.500000E-02  -4.000000E-02
   2.000000E-03  -3.500000E-02  -4.000000E-02
  -2.000000E-03  -3.000000E-02  -4.000000E-02
   0.000000E+00  -3.000000E-02  -4.000000E-02
   2.000000E-03  -3.000000E-02  -4.000000E-02
  -2.000000E-03  -2.500000E-02  -4.000000E-02
   0.000000E+00  -2.500000E-02  -4.000000E-02
   2.000000E-03  -2.500000E-02  -4.000000E-02
  -2.000000E-03  -2.000000E-02  -4.000000E-02
   0.000000E+00  -2.000000E-02  -4.000000E-02
   2.000000E-03  -2.000000E-02  -4.000000E-02
  -2.000000E-03  -1.500000E-02  -4.000000E-02
   0.000000E+00  -1.500000E-02  -4.000000E-02
   2.000000E-03  -1.500000E-02  -4.000000E-02
  -2.000000E-03  -1.000000E-02  -4.000000E-02
   0.000000E+00  -1.000000E-02  -4.000000E-02
   2.000000E-03  -1.000000E-02  -4.000000E-02
  -2.000000E-03  -5.000001E-03  -4.000000E-02
   0.000000E+00  -5.000001E-03  -4.000000E-02
   2.000000E-03  -5.000001E-03  -4.000000E-02
  -2.000000E-03  0.000000E+00  -4.000000E-02
   0.000000E+00  0.000000E+00  -4.000000E-02
   2.000000E-03  0.000000E+00  -4.000000E-02
  -2.000000E-03  5.000001E-03  -4.000000E-02
   0.000000E+00  5.000001E-03  -4.000000E-02
   2.000000E-03  5.000001E-03  -4.000000E-02
  -2.000000E-03  1.000000E-02  -4.000000E-02
   0.000000E+00  1.000000E-02  -4.000000E-02
   2.000000E-03  1.000000E-02  -4.000000E-02
  -2.000000E-03  1.500000E-02  -4.000000E-02
   0.000000E+00  1.500000E-02  -4.000000E-02
   2.000000E-03  1.500000E-02  -4.000000E-02
  -2.000000E-03  2.000000E-02  -4.000000E-02
   0.000000E+00  2.000000E-02  -4.000000E-02
   2.000000E-03  2.000000E-02  -4.000000E-02
  -2.000000E-03  2.500000E-02  -4.000000E-02
   0.000000E+00  2.500000E-02  -4.000000E-02
   2.000000E-03  2.500000E-02  -4.000000E-02
  -2.000000E-03  3.000000E-02  -4.000000E-02
   0.000000E+00  3.000000E-02  -4.000000E-02
   2.000000E-03  3.000000E-02  -4.000000E-02
  -2.000000E-03  3.500000E-02  -4.000000E-02
   0.000000E+00  3.500000E-02  -4.000000E-02
   2.000000E-03  3.500000E-02  -4.000000E-02
  -2.000000E-03  4.000000E-02  -4.000000E-02
   0.000000E+00  4.000000E-02  -4.000000E-02
   2.000000E-03  4.000000E-02  -4.000000E-02
  -2.000000E-03  4.500000E-02  -4.000000E-02
   0.000000E+00  4.500000E-02  -4.000000E-02
   2.000000E-03  4.500000E-02  -4.000000E-02
  -2.000000E-03  5.000000E-02  -4.000000E-02
   0.000000E+00  5.000000E-02  -4.000000E-02
   2.000000E-03  5.000000E-02  -4.000000E-02
  -2.000000E-03  -5.000000E-02  -3.500000E-02
   0.000000E+00  -5.000000E-02  -3.500000E-02
   2.000000E-03  -5.000000E-02  -3.500000E-02
  -2.000000E-03  -4.500000E-02  -3.500000E-02
   0.000000E+00  -4.500000E-02  -3.500000E-02
   2.000000E-03  -4.500000E-02  -3.500000E-02
  -2.000000E-03  -4.000000E-02  -3.500000E-02
   0.000000E+00  -4.000000E-02  -3.500000E-02
   2.000000E-03  -4.000000E-02  -3.500000E-02
  -2.000000E-03  -3.500000E-02  -3.500000E-02
   0.000000E+00  -3.500000E-02  -3.500000E-02
   2.000000E-03  -3.500000E-02  -3.500000E-02
  -2.000000E-03  -3.000000E-02  -3.500000E-02
   0.000000E+00  -3.000000E-02  -3.500000E-02
   2.000000E-03  -3.000000E-02  -3.500000E-02
  -2.000000E-03  -2.500000E-02  -3.500000E-02
   0.000000E+00  -2.500000E-02  -3.500000E-02
   2.000000E-03  -2.500000E-02  -3.500000E-02
  -2.000000E-03  -2.000000E-02  -3.500000E-02
   0.000000E+00  -2.000000E-02  -3.500000E-02
   2.000000E-03  -2.000000E-02  -3.500000E-02
  -2.000000E-03  -1.500000E-02  -3.500000E-02
   0.000000E+00  -1.500000E-02  -3.500000E-02
   2.000000E-03  -1.500000E-02  -3.500000E-02
  -2.000000E-03  -1.000000E-02  -3.500000E-02
   0.000000E+00  -1.000000E-02  -3.500000E-02
   2.000000E-03  -1.000000E-02  -3.500000E-02
  -2.000000E-03  -5.000001E-03  -3.500000E-02
[...]
POINT_DATA   1323
VECTORS  boundary  float
  0.000000E+00  0.000000E+00  0.000000E+00
  0.000000E+00  0.000000E+00  0.000000E+00
  0.000000E+00  0.000000E+00  0.000000E+00
  0.000000E+00  0.000000E+00  0.000000E+00
  0.000000E+00  0.000000E+00  0.000000E+00
  0.000000E+00  0.000000E+00  0.000000E+00
  0.000000E+00  0.000000E+00  0.000000E+00
  0.000000E+00  0.000000E+00  0.000000E+00
  0.000000E+00  0.000000E+00  0.000000E+00
  0.000000E+00  0.000000E+00  0.000000E+00
  0.000000E+00  0.000000E+00  0.000000E+00
  0.000000E+00  0.000000E+00  0.000000E+00
  0.000000E+00  0.000000E+00  0.000000E+00
  0.000000E+00  0.000000E+00  0.000000E+00
  0.000000E+00  0.000000E+00  0.000000E+00
  0.000000E+00  0.000000E+00  0.000000E+00
  0.000000E+00  0.000000E+00  0.000000E+00
  0.000000E+00  0.000000E+00  0.000000E+00
  0.000000E+00  0.000000E+00  0.000000E+00
  0.000000E+00  0.000000E+00  0.000000E+00
  0.000000E+00  0.000000E+00  0.000000E+00
  0.000000E+00  0.000000E+00  0.000000E+00
  0.000000E+00  0.000000E+00  0.000000E+00
  0.000000E+00  0.000000E+00  0.000000E+00
  0.000000E+00  0.000000E+00  0.000000E+00
  0.000000E+00  0.000000E+00  0.000000E+00
  0.000000E+00  0.000000E+00  0.000000E+00
  0.000000E+00  0.000000E+00  0.000000E+00
  0.000000E+00  0.000000E+00  0.000000E+00
  0.000000E+00  0.000000E+00  0.000000E+00
  0.000000E+00  0.000000E+00  0.000000E+00
  0.000000E+00  0.000000E+00  0.000000E+00
  0.000000E+00  0.000000E+00  0.000000E+00
  0.000000E+00  0.000000E+00  0.000000E+00
  0.000000E+00  0.000000E+00  0.000000E+00
  0.000000E+00  0.000000E+00  0.000000E+00
  0.000000E+00  0.000000E+00  0.000000E+00
  0.000000E+00  0.000000E+00  0.000000E+00
  0.000000E+00  0.000000E+00  0.000000E+00
  0.000000E+00  0.000000E+00  0.000000E+00
  0.000000E+00  0.000000E+00  0.000000E+00
  0.000000E+00  0.000000E+00  0.000000E+00
  0.000000E+00  0.000000E+00  0.000000E+00
  0.000000E+00  0.000000E+00  0.000000E+00
  0.000000E+00  0.000000E+00  0.000000E+00
  0.000000E+00  0.000000E+00  0.000000E+00
  0.000000E+00  0.000000E+00  0.000000E+00
  0.000000E+00  0.000000E+00  0.000000E+00
  0.000000E+00  0.000000E+00  0.000000E+00
  0.000000E+00  0.000000E+00  0.000000E+00
  0.000000E+00  0.000000E+00  0.000000E+00
  0.000000E+00  0.000000E+00  0.000000E+00
  0.000000E+00  0.000000E+00  0.000000E+00
  0.000000E+00  0.000000E+00  0.000000E+00
  0.000000E+00  0.000000E+00  0.000000E+00
  0.000000E+00  0.000000E+00  0.000000E+00
  0.000000E+00  0.000000E+00  0.000000E+00
  0.000000E+00  0.000000E+00  0.000000E+00
  0.000000E+00  0.000000E+00  0.000000E+00
  0.000000E+00  0.000000E+00  0.000000E+00
  0.000000E+00  0.000000E+00  0.000000E+00
  0.000000E+00  0.000000E+00  0.000000E+00
  0.000000E+00  0.000000E+00  0.000000E+00
  0.000000E+00  0.000000E+00  0.000000E+00
  0.000000E+00  0.000000E+00  0.000000E+00
  0.000000E+00  0.000000E+00  0.000000E+00
  0.000000E+00  0.000000E+00  0.000000E+00
  0.000000E+00  0.000000E+00  0.000000E+00
  0.000000E+00  0.000000E+00  0.000000E+00
  0.000000E+00  0.000000E+00  0.000000E+00
  0.000000E+00  0.000000E+00  0.000000E+00
  0.000000E+00  0.000000E+00  0.000000E+00
  0.000000E+00  0.000000E+00  0.000000E+00
  0.000000E+00  0.000000E+00  0.000000E+00
  0.000000E+00  0.000000E+00  0.000000E+00
  0.000000E+00  0.000000E+00  0.000000E+00
  0.000000E+00  0.000000E+00  0.000000E+00
  0.000000E+00  0.000000E+00  0.000000E+00
  0.000000E+00  0.000000E+00  0.000000E+00
  0.000000E+00  0.000000E+00  0.000000E+00
  0.000000E+00  0.000000E+00  0.000000E+00
  0.000000E+00  0.000000E+00  0.000000E+00
  0.000000E+00  0.000000E+00  0.000000E+00
  0.000000E+00  0.000000E+00  0.000000E+00
  0.000000E+00  0.000000E+00  0.000000E+00
  0.000000E+00  0.000000E+00  0.000000E+00
  0.000000E+00  0.000000E+00  0.000000E+00
  0.000000E+00  0.000000E+00  0.000000E+00
  0.000000E+00  0.000000E+00  0.000000E+00
  0.000000E+00  0.000000E+00  0.000000E+00
  0.000000E+00  0.000000E+00  0.000000E+00
  0.000000E+00  0.000000E+00  0.000000E+00
  0.000000E+00  0.000000E+00  0.000000E+00
  0.000000E+00  0.000000E+00  0.000000E+00
  0.000000E+00  0.000000E+00  0.000000E+00
  0.000000E+00  0.000000E+00  0.000000E+00
  0.000000E+00  0.000000E+00  0.000000E+00
  0.000000E+00  0.000000E+00  0.000000E+00
  0.000000E+00  0.000000E+00  0.000000E+00
  0.000000E+00  0.000000E+00  0.000000E+00
  0.000000E+00  0.000000E+00  0.000000E+00
  0.000000E+00  0.000000E+00  0.000000E+00
  0.000000E+00  0.000000E+00  0.000000E+00
  0.000000E+00  0.000000E+00  0.000000E+00
  0.000000E+00  0.000000E+00  0.000000E+00
  0.000000E+00  0.000000E+00  0.000000E+00
  0.000000E+00  0.000000E+00  0.000000E+00
  0.000000E+00  0.000000E+00  0.000000E+00
  0.000000E+00  0.000000E+00  0.000000E+00
  0.000000E+00  0.000000E+00  0.000000E+00
  0.000000E+00  0.000000E+00  0.000000E+00
  0.000000E+00  0.000000E+00  0.000000E+00
  0.000000E+00  0.000000E+00  0.000000E+00
  0.000000E+00  0.000000E+00  0.000000E+00
  0.000000E+00  0.000000E+00  0.000000E+00
  0.000000E+00  0.000000E+00  0.000000E+00
  0.000000E+00  0.000000E+00  0.000000E+00
  0.000000E+00  0.000000E+00  0.000000E+00
  0.000000E+00  0.000000E+00  0.000000E+00
  0.000000E+00  0.000000E+00  0.000000E+00
  0.000000E+00  0.000000E+00  0.000000E+00
  0.000000E+00  0.000000E+00  0.000000E+00
  0.000000E+00  0.000000E+00  0.000000E+00
  1.000000E+00  1.000000E+00  1.000000E+00
  1.000000E+00  1.000000E+00  1.000000E+00
  1.000000E+00  1.000000E+00  1.000000E+00
  0.000000E+00  0.000000E+00  0.000000E+00
  0.000000E+00  0.000000E+00  0.000000E+00
  0.000000E+00  0.000000E+00  0.000000E+00
  0.000000E+00  0.000000E+00  0.000000E+00
  0.000000E+00  0.000000E+00  0.000000E+00
  0.000000E+00  0.000000E+00  0.000000E+00
  0.000000E+00  0.000000E+00  0.000000E+00
  0.000000E+00  0.000000E+00  0.000000E+00
  0.000000E+00  0.000000E+00  0.000000E+00
  0.000000E+00  0.000000E+00  0.000000E+00
  0.000000E+00  0.000000E+00  0.000000E+00
  0.000000E+00  0.000000E+00  0.000000E+00
  0.000000E+00  0.000000E+00  0.000000E+00
  0.000000E+00  0.000000E+00  0.000000E+00
  0.000000E+00  0.000000E+00  0.000000E+00
  0.000000E+00  0.000000E+00  0.000000E+00
  0.000000E+00  0.000000E+00  0.000000E+00
  0.000000E+00  0.000000E+00  0.000000E+00
  0.000000E+00  0.000000E+00  0.000000E+00
  0.000000E+00  0.000000E+00  0.000000E+00
  0.000000E+00  0.000000E+00  0.000000E+00
  0.000000E+00  0.000000E+00  0.000000E+00
  0.000000E+00  0.000000E+00  0.000000E+00
  0.000000E+00  0.000000E+00  0.000000E+00
  0.000000E+00  0.000000E+00  0.000000E+00
  0.000000E+00  0.000000E+00  0.000000E+00
  0.000000E+00  0.000000E+00  0.000000E+00
  0.000000E+00  0.000000E+00  0.000000E+00
  0.000000E+00  0.000000E+00  0.000000E+00
  0.000000E+00  0.000000E+00  0.000000E+00
  0.000000E+00  0.000000E+00  0.000000E+00
  0.000000E+00  0.000000E+00  0.000000E+00
  0.000000E+00  0.000000E+00  0.000000E+00
  0.000000E+00  0.000000E+00  0.000000E+00
  0.000000E+00  0.000000E+00  0.000000E+00
  0.000000E+00  0.000000E+00  0.000000E+00
  0.000000E+00  0.000000E+00  0.000000E+00
  0.000000E+00  0.000000E+00  0.000000E+00
  0.000000E+00  0.000000E+00  0.000000E+00
  0.000000E+00  0.000000E+00  0.000000E+00
  0.000000E+00  0.000000E+00  0.000000E+00
  0.000000E+00  0.000000E+00  0.000000E+00
  0.000000E+00  0.000000E+00  0.000000E+00
  0.000000E+00  0.000000E+00  0.000000E+00
  0.000000E+00  0.000000E+00  0.000000E+00
  0.000000E+00  0.000000E+00  0.000000E+00
  0.000000E+00  0.000000E+00  0.000000E+00
  0.000000E+00  0.000000E+00  0.000000E+00
  0.000000E+00  0.000000E+00  0.000000E+00
  0.000000E+00  0.000000E+00  0.000000E+00
  0.000000E+00  0.000000E+00  0.000000E+00
  0.000000E+00  0.000000E+00  0.000000E+00
  0.000000E+00  0.000000E+00  0.000000E+00
  0.000000E+00  0.000000E+00  0.000000E+00
  0.000000E+00  0.000000E+00  0.000000E+00
  0.000000E+00  0.000000E+00  0.000000E+00
  0.000000E+00  0.000000E+00  0.000000E+00
  0.000000E+00  0.000000E+00  0.000000E+00
  0.000000E+00  0.000000E+00  0.000000E+00
  0.000000E+00  0.000000E+00  0.000000E+00
  1.000000E+00  1.000000E+00  1.000000E+00
  1.000000E+00  1.000000E+00  1.000000E+00
  1.000000E+00  1.000000E+00  1.000000E+00
  0.000000E+00  0.000000E+00  0.000000E+00
  0.000000E+00  0.000000E+00  0.000000E+00
  0.000000E+00  0.000000E+00  0.000000E+00
  0.000000E+00  0.000000E+00  0.000000E+00
  0.000000E+00  0.000000E+00  0.000000E+00
  0.000000E+00  0.000000E+00  0.000000E+00
  0.000000E+00  0.000000E+00  0.000000E+00
  0.000000E+00  0.000000E+00  0.000000E+00
  0.000000E+00  0.000000E+00  0.000000E+00
  0.000000E+00  0.000000E+00  0.000000E+00
  0.000000E+00  0.000000E+00  0.000000E+00
  0.000000E+00  0.000000E+00  0.000000E+00
  0.000000E+00  0.000000E+00  0.000000E+00
  0.000000E+00  0.000000E+00  0.000000E+00
  0.000000E+00  0.000000E+00  0.000000E+00
  0.000000E+00  0.000000E+00  0.000000E+00
  0.000000E+00  0.000000E+00  0.000000E+00
  0.000000E+00  0.000000E+00  0.000000E+00
  0.000000E+00  0.000000E+00  0.000000E+00
  0.000000E+00  0.000000E+00  0.000000E+00
  0.000000E+00  0.000000E+00  0.000000E+00
  0.000000E+00  0.000000E+00  0.000000E+00
  0.000000E+00  0.000000E+00  0.000000E+00
  0.000000E+00  0.000000E+00  0.000000E+00
  0.000000E+00  0.000000E+00  0.000000E+00
  0.000000E+00  0.000000E+00  0.000000E+00
  0.000000E+00  0.000000E+00  0.000000E+00
  0.000000E+00  0.000000E+00  0.000000E+00
  0.000000E+00  0.000000E+00  0.000000E+00
  0.000000E+00  0.000000E+00  0.000000E+00
  0.000000E+00  0.000000E+00  0.000000E+00
  0.000000E+00  0.000000E+00  0.000000E+00
  0.000000E+00  0.000000E+00  0.000000E+00
  0.000000E+00  0.000000E+00  0.000000E+00
  0.000000E+00  0.000000E+00  0.000000E+00
  0.000000E+00  0.000000E+00  0.000000E+00
  0.000000E+00  0.000000E+00  0.000000E+00
  0.000000E+00  0.000000E+00  0.000000E+00
  0.000000E+00  0.000000E+00  0.000000E+00
  0.000000E+00  0.000000E+00  0.000000E+00
  0.000000E+00  0.000000E+00  0.000000E+00
  0.000000E+00  0.000000E+00  0.000000E+00
  0.000000E+00  0.000000E+00  0.000000E+00
  0.000000E+00  0.000000E+00  0.000000E+00
  0.000000E+00  0.000000E+00  0.000000E+00
  0.000000E+00  0.000000E+00  0.000000E+00
  0.000000E+00  0.000000E+00  0.000000E+00
  0.000000E+00  0.000000E+00  0.000000E+00
  0.000000E+00  0.000000E+00  0.000000E+00
  0.000000E+00  0.000000E+00  0.000000E+00
  0.000000E+00  0.000000E+00  0.000000E+00
  0.000000E+00  0.000000E+00  0.000000E+00
  0.000000E+00  0.000000E+00  0.000000E+00
  0.000000E+00  0.000000E+00  0.000000E+00
  0.000000E+00  0.000000E+00  0.000000E+00
  0.000000E+00  0.000000E+00  0.000000E+00
  0.000000E+00  0.000000E+00  0.000000E+00
  0.000000E+00  0.000000E+00  0.000000E+00
  0.000000E+00  0.000000E+00  0.000000E+00
  0.000000E+00  0.000000E+00  0.000000E+00
  1.000000E+00  1.000000E+00  1.000000E+00
  1.000000E+00  1.000000E+00  1.000000E+00
  1.000000E+00  1.000000E+00  1.000000E+00
  0.000000E+00  0.000000E+00  0.000000E+00
  0.000000E+00  0.000000E+00  0.000000E+00
  0.000000E+00  0.000000E+00  0.000000E+00
  0.000000E+00  0.000000E+00  0.000000E+00
  0.000000E+00  0.000000E+00  0.000000E+00
  0.000000E+00  0.000000E+00  0.000000E+00
  0.000000E+00  0.000000E+00  0.000000E+00
  0.000000E+00  0.000000E+00  0.000000E+00
  0.000000E+00  0.000000E+00  0.000000E+00
  0.000000E+00  0.000000E+00  0.000000E+00
  0.000000E+00  0.000000E+00  0.000000E+00
  0.000000E+00  0.000000E+00  0.000000E+00
  0.000000E+00  0.000000E+00  0.000000E+00
  0.000000E+00  0.000000E+00  0.000000E+00
  0.000000E+00  0.000000E+00  0.000000E+00
  0.000000E+00  0.000000E+00  0.000000E+00
  0.000000E+00  0.000000E+00  0.000000E+00
  0.000000E+00  0.000000E+00  0.000000E+00
  0.000000E+00  0.000000E+00  0.000000E+00
  0.000000E+00  0.000000E+00  0.000000E+00
  0.000000E+00  0.000000E+00  0.000000E+00
  0.000000E+00  0.000000E+00  0.000000E+00
  0.000000E+00  0.000000E+00  0.000000E+00
  0.000000E+00  0.000000E+00  0.000000E+00
  0.000000E+00  0.000000E+00  0.000000E+00
  0.000000E+00  0.000000E+00  0.000000E+00
  0.000000E+00  0.000000E+00  0.000000E+00
  0.000000E+00  0.000000E+00  0.000000E+00
  0.000000E+00  0.000000E+00  0.000000E+00
  0.000000E+00  0.000000E+00  0.000000E+00
  0.000000E+00  0.000000E+00  0.000000E+00
  0.000000E+00  0.000000E+00  0.000000E+00
  0.000000E+00  0.000000E+00  0.000000E+00
  0.000000E+00  0.000000E+00  0.000000E+00
  0.000000E+00  0.000000E+00  0.000000E+00
  0.000000E+00  0.000000E+00  0.000000E+00
  0.000000E+00  0.000000E+00  0.000000E+00
  0.000000E+00  0.000000E+00  0.000000E+00
  0.000000E+00  0.000000E+00  0.000000E+00
  0.000000E+00  0.000000E+00  0.000000E+00
  0.000000E+00  0.000000E+00  0.000000E+00
  0.000000E+00  0.000000E+00  0.000000E+00
  0.000000E+00  0.000000E+00  0.000000E+00
  0.000000E+00  0.000000E+00  0.000000E+00
  0.000000E+00  0.000000E+00  0.000000E+00
  0.000000E+00  0.000000E+00  0.000000E+00
  0.000000E+00  0.000000E+00  0.000000E+00
  0.000000E+00  0.000000E+00  0.000000E+00
  0.000000E+00  0.000000E+00  0.000000E+00
  0.000000E+00  0.000000E+00  0.000000E+00
  0.000000E+00  0.000000E+00  0.000000E+00
  0.000000E+00  0.000000E+00  0.000000E+00
  0.000000E+00  0.000000E+00  0.000000E+00
  0.000000E+00  0.000000E+00  0.000000E+00
  0.000000E+00  0.000000E+00  0.000000E+00
  0.000000E+00  0.000000E+00  0.000000E+00
  0.000000E+00  0.000000E+00  0.000000E+00
  0.000000E+00  0.000000E+00  0.000000E+00
  0.000000E+00  0.000000E+00  0.000000E+00
  0.000000E+00  0.000000E+00  0.000000E+00
  1.000000E+00  1.000000E+00  1.000000E+00
  1.000000E+00  1.000000E+00  1.000000E+00
  1.000000E+00  1.000000E+00  1.000000E+00
  0.000000E+00  0.000000E+00  0.000000E+00
  0.000000E+00  0.000000E+00  0.000000E+00
  0.000000E+00  0.000000E+00  0.000000E+00
  0.000000E+00  0.000000E+00  0.000000E+00
  0.000000E+00  0.000000E+00  0.000000E+00
  0.000000E+00  0.000000E+00  0.000000E+00
  0.000000E+00  0.000000E+00  0.000000E+00
  0.000000E+00  0.000000E+00  0.000000E+00
  0.000000E+00  0.000000E+00  0.000000E+00
  0.000000E+00  0.000000E+00  0.000000E+00
  0.000000E+00  0.000000E+00  0.000000E+00
  0.000000E+00  0.000000E+00  0.000000E+00
  0.000000E+00  0.000000E+00  0.000000E+00
  0.000000E+00  0.000000E+00  0.000000E+00
  0.000000E+00  0.000000E+00  0.000000E+00
  0.000000E+00  0.000000E+00  0.000000E+00
  0.000000E+00  0.000000E+00  0.000000E+00
  0.000000E+00  0.000000E+00  0.000000E+00
  0.000000E+00  0.000000E+00  0.000000E+00
  0.000000E+00  0.000000E+00  0.000000E+00
  0.000000E+00  0.000000E+00  0.000000E+00
  0.000000E+00  0.000000E+00  0.000000E+00
  0.000000E+00  0.000000E+00  0.000000E+00
  0.000000E+00  0.000000E+00  0.000000E+00
  0.000000E+00  0.000000E+00  0.000000E+00
  0.000000E+00  0.000000E+00  0.000000E+00
  0.000000E+00  0.000000E+00  0.000000E+00
  0.000000E+00  0.000000E+00  0.000000E+00
  0.000000E+00  0.000000E+00  0.000000E+00
  0.000000E+00  0.000000E+00  0.000000E+00
  0.000000E+00  0.000000E+00  0.000000E+00
  0.000000E+00  0.000000E+00  0.000000E+00
  0.000000E+00  0.000000E+00  0.000000E+00
  0.000000E+00  0.000000E+00  0.000000E+00
  0.000000E+00  0.000000E+00  0.000000E+00
  0.000000E+00  0.000000E+00  0.000000E+00
  0.000000E+00  0.000000E+00  0.000000E+00
  0.000000E+00  0.000000E+00  0.000000E+00
  0.000000E+00  0.000000E+00  0.000000E+00
  0.000000E+00  0.000000E+00  0.000000E+00
  0.000000E+00  0.000000E+00  0.000000E+00
  0.000000E+00  0.000000E+00  0.000000E+00
  0.000000E+00  0.000000E+00  0.000000E+00
  0.000000E+00  0.000000E+00  0.000000E+00
  0.000000E+00  0.000000E+00  0.000000E+00
  0.000000E+00  0.000000E+00  0.000000E+00
  0.000000E+00  0.000000E+00  0.000000E+00
  0.000000E+00  0.000000E+00  0.000000E+00
  0.000000E+00  0.000000E+00  0.000000E+00
  0.000000E+00  0.000000E+00  0.000000E+00
  0.000000E+00  0.000000E+00  0.000000E+00
  0.000000E+00  0.000000E+00  0.000000E+00
  0.000000E+00  0.000000E+00  0.000000E+00
  0.000000E+00  0.000000E+00  0.000000E+00
  0.000000E+00  0.000000E+00  0.000000E+00
  0.000000E+00  0.000000E+00  0.000000E+00
  0.000000E+00  0.000000E+00  0.000000E+00
  0.000000E+00  0.000000E+00  0.000000E+00
  0.000000E+00  0.000000E+00  0.000000E+00
  0.000000E+00  0.000000E+00  0.000000E+00
  1.000000E+00  1.000000E+00  1.000000E+00
  1.000000E+00  1.000000E+00  1.000000E+00
  1.000000E+00  1.000000E+00  1.000000E+00
  0.000000E+00  0.000000E+00  0.000000E+00
  0.000000E+00  0.000000E+00  0.000000E+00
  0.000000E+00  0.000000E+00  0.000000E+00
  0.000000E+00  0.000000E+00  0.000000E+00
  0.000000E+00  0.000000E+00  0.000000E+00
  0.000000E+00  0.000000E+00  0.000000E+00
  0.000000E+00  0.000000E+00  0.000000E+00
  0.000000E+00  0.000000E+00  0.000000E+00
  0.000000E+00  0.000000E+00  0.000000E+00
  0.000000E+00  0.000000E+00  0.000000E+00
  0.000000E+00  0.000000E+00  0.000000E+00
  0.000000E+00  0.000000E+00  0.000000E+00
  0.000000E+00  0.000000E+00  0.000000E+00
  0.000000E+00  0.000000E+00  0.000000E+00
  0.000000E+00  0.000000E+00  0.000000E+00
  0.000000E+00  0.000000E+00  0.000000E+00
  0.000000E+00  0.000000E+00  0.000000E+00
  0.000000E+00  0.000000E+00  0.000000E+00
  0.000000E+00  0.000000E+00  0.000000E+00
  0.000000E+00  0.000000E+00  0.000000E+00
  0.000000E+00  0.000000E+00  0.000000E+00
  0.000000E+00  0.000000E+00  0.000000E+00
  0.000000E+00  0.000000E+00  0.000000E+00
  0.000000E+00  0.000000E+00  0.000000E+00
  0.000000E+00  0.000000E+00  0.000000E+00
  0.000000E+00  0.000000E+00  0.000000E+00
  0.000000E+00  0.000000E+00  0.000000E+00
  0.000000E+00  0.000000E+00  0.000000E+00
  0.000000E+00  0.000000E+00  0.000000E+00
  0.000000E+00  0.000000E+00  0.000000E+00
  0.000000E+00  0.000000E+00  0.000000E+00
  0.000000E+00  0.000000E+00  0.000000E+00
  0.000000E+00  0.000000E+00  0.000000E+00
  0.000000E+00  0.000000E+00  0.000000E+00
  0.000000E+00  0.000000E+00  0.000000E+00
  0.000000E+00  0.000000E+00  0.000000E+00
  0.000000E+00  0.000000E+00  0.000000E+00
  0.000000E+00  0.000000E+00  0.000000E+00
  0.000000E+00  0.000000E+00  0.000000E+00
  0.000000E+00  0.000000E+00  0.000000E+00
  0.000000E+00  0.000000E+00  0.000000E+00
  0.000000E+00  0.000000E+00  0.000000E+00
  0.000000E+00  0.000000E+00  0.000000E+00
  0.000000E+00  0.000000E+00  0.000000E+00
  0.000000E+00  0.000000E+00  0.000000E+00
  0.000000E+00  0.000000E+00  0.000000E+00
  0.000000E+00  0.000000E+00  0.000000E+00
  0.000000E+00  0.000000E+00  0.000000E+00
  0.000000E+00  0.000000E+00  0.000000E+00
  0.000000E+00  0.000000E+00  0.000000E+00
  0.000000E+00  0.000000E+00  0.000000E+00
  0.000000E+00  0.000000E+00  0.000000E+00
  0.000000E+00  0.000000E+00  0.000000E+00
  0.000000E+00  0.000000E+00  0.000000E+00
  0.000000E+00  0.000000E+00  0.000000E+00
  0.000000E+00  0.000000E+00  0.000000E+00
  0.000000E+00  0.000000E+00  0.000000E+00
  0.000000E+00  0.000000E+00  0.000000E+00
  0.000000E+00  0.000000E+00  0.000000E+00
  0.000000E+00  0.000000E+00  0.000000E+00
  1.000000E+00  1.000000E+00  1.000000E+00
  1.000000E+00  1.000000E+00  1.000000E+00
  1.000000E+00  1.000000E+00  1.000000E+00
  0.000000E+00  0.000000E+00  0.000000E+00
  0.000000E+00  0.000000E+00  0.000000E+00
  0.000000E+00  0.000000E+00  0.000000E+00
  0.000000E+00  0.000000E+00  0.000000E+00
  0.000000E+00  0.000000E+00  0.000000E+00
  0.000000E+00  0.000000E+00  0.000000E+00
  0.000000E+00  0.000000E+00  0.000000E+00
  0.000000E+00  0.000000E+00  0.000000E+00
  0.000000E+00  0.000000E+00  0.000000E+00
  0.000000E+00  0.000000E+00  0.000000E+00
  0.000000E+00  0.000000E+00  0.000000E+00
  0.000000E+00  0.000000E+00  0.000000E+00
  0.000000E+00  0.000000E+00  0.000000E+00
  0.000000E+00  0.000000E+00  0.000000E+00
  0.000000E+00  0.000000E+00  0.000000E+00
  0.000000E+00  0.000000E+00  0.000000E+00
  0.000000E+00  0.000000E+00  0.000000E+00
  0.000000E+00  0.000000E+00  0.000000E+00
  0.000000E+00  0.000000E+00  0.000000E+00
  0.000000E+00  0.000000E+00  0.000000E+00
  0.000000E+00  0.000000E+00  0.000000E+00
  0.000000E+00  0.000000E+00  0.000000E+00
  0.000000E+00  0.000000E+00  0.000000E+00